# vtk DataFile Version 3.0
Random Data for SPP
ASCII
DATASET POLYDATA
POINTS 1 float
12.999635 14.298140 0.000000

POINT_DATA 1
VECTORS velocity float
-0.148987 0.988838 0.000000
