# vtk DataFile Version 3.0
Random Data for SPP
ASCII
DATASET POLYDATA
POINTS 1 float
16.460487 17.770804 0.000000

POINT_DATA 1
VECTORS velocity float
0.946769 0.321965 0.000000
