# vtk DataFile Version 3.0
Random Data for SPP
ASCII
DATASET POLYDATA
POINTS 1 float
24.565112 22.292746 0.000000

POINT_DATA 1
VECTORS velocity float
-0.815882 -0.577041 0.000000
