# vtk DataFile Version 3.0
Random Data for SPP
ASCII
DATASET POLYDATA
POINTS 1 float
25.460072 23.135693 0.000000

POINT_DATA 1
VECTORS velocity float
-0.609277 -0.792740 0.000000
