# vtk DataFile Version 3.0
Random Data for SPP
ASCII
DATASET POLYDATA
POINTS 1 float
17.372605 15.363741 0.000000

POINT_DATA 1
VECTORS velocity float
-0.407782 -0.912769 0.000000
