# vtk DataFile Version 3.0
Random Data for SPP
ASCII
DATASET POLYDATA
POINTS 1 float
25.877050 23.939997 0.000000

POINT_DATA 1
VECTORS velocity float
-0.134598 -0.990890 0.000000
