# vtk DataFile Version 3.0
Random Data for SPP
ASCII
DATASET POLYDATA
POINTS 1 float
25.320401 22.571003 0.000000

POINT_DATA 1
VECTORS velocity float
-0.756726 -0.653573 0.000000
