# vtk DataFile Version 3.0
Random Data for SPP
ASCII
DATASET POLYDATA
POINTS 1 float
18.223845 18.426179 0.000000

POINT_DATA 1
VECTORS velocity float
0.881487 0.472208 0.000000
