# vtk DataFile Version 3.0
Random Data for SPP
ASCII
DATASET POLYDATA
POINTS 1 float
15.518818 17.518438 0.000000

POINT_DATA 1
VECTORS velocity float
0.923575 0.383750 0.000000
