# vtk DataFile Version 3.0
Random Data for SPP
ASCII
DATASET POLYDATA
POINTS 1 float
26.069727 24.868163 0.000000

POINT_DATA 1
VECTORS velocity float
0.300382 -0.953819 0.000000
