# vtk DataFile Version 3.0
Random Data for SPP
ASCII
DATASET POLYDATA
POINTS 1 float
12.759511 14.231082 0.000000

POINT_DATA 1
VECTORS velocity float
-0.049467 0.998775 0.000000
