# vtk DataFile Version 3.0
Random Data for SPP
ASCII
DATASET POLYDATA
POINTS 1 float
21.148618 20.703892 0.000000

POINT_DATA 1
VECTORS velocity float
-0.919804 -0.392378 0.000000
