# vtk DataFile Version 3.0
Random Data for SPP
ASCII
DATASET POLYDATA
POINTS 1 float
23.361414 25.712760 0.000000

POINT_DATA 1
VECTORS velocity float
0.840746 0.541517 0.000000
