# vtk DataFile Version 3.0
Random Data for SPP
ASCII
DATASET POLYDATA
POINTS 1 float
14.543100 12.634736 0.000000

POINT_DATA 1
VECTORS velocity float
-0.964098 0.265549 0.000000
