# vtk DataFile Version 3.0
Random Data for SPP
ASCII
DATASET POLYDATA
POINTS 1 float
21.825226 24.787244 0.000000

POINT_DATA 1
VECTORS velocity float
0.532367 0.846534 0.000000
