# vtk DataFile Version 3.0
Random Data for SPP
ASCII
DATASET POLYDATA
POINTS 1 float
21.358177 20.567952 0.000000

POINT_DATA 1
VECTORS velocity float
-0.948502 -0.316771 0.000000
