# vtk DataFile Version 3.0
Random Data for SPP
ASCII
DATASET POLYDATA
POINTS 1 float
18.374580 17.492585 0.000000

POINT_DATA 1
VECTORS velocity float
-0.310409 -0.950603 0.000000
