# vtk DataFile Version 3.0
Random Data for SPP
ASCII
DATASET POLYDATA
POINTS 1 float
18.561025 18.757173 0.000000

POINT_DATA 1
VECTORS velocity float
0.909141 0.416489 0.000000
