# vtk DataFile Version 3.0
Random Data for SPP
ASCII
DATASET POLYDATA
POINTS 1 float
12.920906 13.554235 0.000000

POINT_DATA 1
VECTORS velocity float
-0.414857 0.909887 0.000000
