# vtk DataFile Version 3.0
Random Data for SPP
ASCII
DATASET POLYDATA
POINTS 1 float
14.753682 17.496160 0.000000

POINT_DATA 1
VECTORS velocity float
0.908856 0.417137 0.000000
