# vtk DataFile Version 3.0
Random Data for SPP
ASCII
DATASET POLYDATA
POINTS 1 float
18.815632 18.740885 0.000000

POINT_DATA 1
VECTORS velocity float
-0.461724 -0.887024 0.000000
