# vtk DataFile Version 3.0
Random Data for SPP
ASCII
DATASET POLYDATA
POINTS 1 float
16.213965 12.924247 0.000000

POINT_DATA 1
VECTORS velocity float
-0.786375 -0.617755 0.000000
