# vtk DataFile Version 3.0
Random Data for SPP
ASCII
DATASET POLYDATA
POINTS 1 float
24.903784 26.333841 0.000000

POINT_DATA 1
VECTORS velocity float
0.914229 -0.405199 0.000000
