# vtk DataFile Version 3.0
Random Data for SPP
ASCII
DATASET POLYDATA
POINTS 1 float
18.997155 19.044332 0.000000

POINT_DATA 1
VECTORS velocity float
-0.509244 -0.860622 0.000000
