# vtk DataFile Version 3.0
Random Data for SPP
ASCII
DATASET POLYDATA
POINTS 1 float
23.255764 26.276349 0.000000

POINT_DATA 1
VECTORS velocity float
0.908654 0.417554 0.000000
