# vtk DataFile Version 3.0
Random Data for SPP
ASCII
DATASET POLYDATA
POINTS 1 float
17.720984 21.285675 0.000000

POINT_DATA 1
VECTORS velocity float
-0.801711 -0.597712 0.000000
