# vtk DataFile Version 3.0
Random Data for SPP
ASCII
DATASET POLYDATA
POINTS 1 float
21.605091 19.885026 0.000000

POINT_DATA 1
VECTORS velocity float
-0.834760 0.550613 0.000000
