# vtk DataFile Version 3.0
Random Data for SPP
ASCII
DATASET POLYDATA
POINTS 1 float
18.878764 18.621718 0.000000

POINT_DATA 1
VECTORS velocity float
-0.173127 -0.984899 0.000000
