# vtk DataFile Version 3.0
Random Data for SPP
ASCII
DATASET POLYDATA
POINTS 1 float
19.047600 19.820567 0.000000

POINT_DATA 1
VECTORS velocity float
0.579416 -0.815032 0.000000
