# vtk DataFile Version 3.0
Random Data for SPP
ASCII
DATASET POLYDATA
POINTS 1 float
19.371380 19.282927 0.000000

POINT_DATA 1
VECTORS velocity float
0.028224 -0.999602 0.000000
