# vtk DataFile Version 3.0
Random Data for SPP
ASCII
DATASET POLYDATA
POINTS 1 float
20.875869 19.675398 0.000000

POINT_DATA 1
VECTORS velocity float
0.904083 0.427357 0.000000
