# vtk DataFile Version 3.0
Random Data for SPP
ASCII
DATASET POLYDATA
POINTS 1 float
20.207409 18.988966 0.000000

POINT_DATA 1
VECTORS velocity float
0.980867 -0.194679 0.000000
