# vtk DataFile Version 3.0
Random Data for SPP
ASCII
DATASET POLYDATA
POINTS 1 float
17.790666 20.705187 0.000000

POINT_DATA 1
VECTORS velocity float
-0.478729 -0.877963 0.000000
