# vtk DataFile Version 3.0
Random Data for SPP
ASCII
DATASET POLYDATA
POINTS 1 float
18.586279 21.266742 0.000000

POINT_DATA 1
VECTORS velocity float
-0.698018 -0.716080 0.000000
