# vtk DataFile Version 3.0
Random Data for SPP
ASCII
DATASET POLYDATA
POINTS 1 float
21.253095 19.197402 0.000000

POINT_DATA 1
VECTORS velocity float
0.779901 0.625902 0.000000
