# vtk DataFile Version 3.0
Random Data for SPP
ASCII
DATASET POLYDATA
POINTS 1 float
21.209846 19.653975 0.000000

POINT_DATA 1
VECTORS velocity float
0.640188 0.768218 0.000000
