# vtk DataFile Version 3.0
Random Data for SPP
ASCII
DATASET POLYDATA
POINTS 1 float
19.038079 19.980713 0.000000

POINT_DATA 1
VECTORS velocity float
0.308708 -0.951157 0.000000
