# vtk DataFile Version 3.0
Random Data for SPP
ASCII
DATASET POLYDATA
POINTS 1 float
17.278125 19.998728 0.000000

POINT_DATA 1
VECTORS velocity float
0.395335 -0.918537 0.000000
