# vtk DataFile Version 3.0
Random Data for SPP
ASCII
DATASET POLYDATA
POINTS 1 float
19.656491 19.683906 0.000000

POINT_DATA 1
VECTORS velocity float
-0.979253 -0.202642 0.000000
