# vtk DataFile Version 3.0
Random Data for SPP
ASCII
DATASET POLYDATA
POINTS 1 float
19.259029 19.074924 0.000000

POINT_DATA 1
VECTORS velocity float
0.704569 0.709635 0.000000
