# vtk DataFile Version 3.0
Random Data for SPP
ASCII
DATASET POLYDATA
POINTS 1 float
20.997916 17.950137 0.000000

POINT_DATA 1
VECTORS velocity float
0.913943 0.405842 0.000000
