# vtk DataFile Version 3.0
Random Data for SPP
ASCII
DATASET POLYDATA
POINTS 1 float
18.165990 19.577213 0.000000

POINT_DATA 1
VECTORS velocity float
0.908639 -0.417583 0.000000
