# vtk DataFile Version 3.0
Random Data for SPP
ASCII
DATASET POLYDATA
POINTS 1 float
19.273940 20.677146 0.000000

POINT_DATA 1
VECTORS velocity float
-0.482528 0.875880 0.000000
