# vtk DataFile Version 3.0
Random Data for SPP
ASCII
DATASET POLYDATA
POINTS 1 float
19.354173 21.482925 0.000000

POINT_DATA 1
VECTORS velocity float
-0.846589 -0.532247 0.000000
