# vtk DataFile Version 3.0
Random Data for SPP
ASCII
DATASET POLYDATA
POINTS 1 float
20.162544 19.565504 0.000000

POINT_DATA 1
VECTORS velocity float
0.933438 0.358740 0.000000
