# vtk DataFile Version 3.0
Random Data for SPP
ASCII
DATASET POLYDATA
POINTS 1 float
19.047217 18.700657 0.000000

POINT_DATA 1
VECTORS velocity float
-0.158682 -0.987330 0.000000
