# vtk DataFile Version 3.0
Random Data for SPP
ASCII
DATASET POLYDATA
POINTS 1 float
18.083801 20.959621 0.000000

POINT_DATA 1
VECTORS velocity float
-0.149203 -0.988807 0.000000
