# vtk DataFile Version 3.0
Random Data for SPP
ASCII
DATASET POLYDATA
POINTS 1 float
19.627364 17.493930 0.000000

POINT_DATA 1
VECTORS velocity float
0.999219 0.039506 0.000000
