# vtk DataFile Version 3.0
Random Data for SPP
ASCII
DATASET POLYDATA
POINTS 1 float
20.540057 20.524196 0.000000

POINT_DATA 1
VECTORS velocity float
-0.994236 -0.107210 0.000000
